title                   = Sampling
integrator              = md
nsteps                  = 5000000   ; 2 * 5000 = 10000 ps = 10 ns
dt                      = 0.002     ; 2 fs
nstxout                 = 0
nstvout                 = 0
nstfout                 = 0
nstenergy               = 0
nstlog                  = 5000      ; update log file every 10 ps
nstxout-compressed      = 5000      ; save compressed coordinates every 10 ps
compressed-x-grps       = System
continuation            = no
constraint_algorithm    = lincs
constraints             = h-bonds
lincs_iter              = 1
lincs_order             = 4
cutoff-scheme           = Verlet
rcoulomb                = 1.0
rvdw                    = 1.0
coulombtype             = PME
pme_order               = 4
fourierspacing          = 0.16
tcoupl                  = V-rescale
tc-grps                 = Protein Non-Protein
tau_t                   = 0.1     0.1
ref_t                   = 300     300
pcoupl                  = Parrinello-Rahman
pcoupltype              = isotropic
tau_p                   = 2.0
ref_p                   = 1.0
compressibility         = 4.5e-5
pbc                     = xyz
DispCorr                = EnerPres
gen_vel                 = yes
gen_temp                = 300
gen_seed                = -1
